file 490185 1586228155                                          
version 2
run Tictoc15-0-20200407-09:49:26-2444
attr configname Tictoc15
attr datetime 20200407-09:49:26
attr experiment Tictoc15
attr inifile omnetpp.ini
attr iterationvars ""
attr iterationvarsf ""
attr measurement ""
attr network Tictoc15
attr processid 2444
attr repetition 0
attr replication #0
attr resultdir results
attr runnumber 0
attr seedset 0

vector 0 Tictoc15.tic[5] HopCount ETV
vector 1 Tictoc15.tic[0] HopCount ETV
vector 2 Tictoc15.tic[3] HopCount ETV
vector 3 Tictoc15.tic[4] HopCount ETV
vector 4 Tictoc15.tic[1] HopCount ETV
vector 5 Tictoc15.tic[2] HopCount ETV
0	607 12243 18 37924 1.7 3792.3 684 1 78 8632 204794
1	12850 11071 29 37895 2.8 3789.4 633 1 101 8073 202761
2	23921 11276 74 37622 7.3 3762.1 628 1 129 8335 220941
3	35197 11123 77 37931 7.6 3793 649 1 28 2473 22673
4	46320 11714 140 37932 13.9 3793.1 667 1 39 2559 26301
5	58034 11690 145 37927 14.4 3792.6 664 1 96 7859 171749
0	69724 69812 37944 246036 3794.3 24603.5 3514 1 110 43632 1057134
1	139536 70006 38037 245941 3803.6 24594 3586 1 101 45657 1105505
2	209542 71337 37946 246012 3794.5 24601.1 3586 1 101 45033 1084727
3	280879 69405 38039 245995 3803.8 24599.4 3634 1 42 14697 135845
4	350284 70015 38038 245976 3803.7 24597.5 3586 1 46 13471 120655
5	420299 69884 37979 246019 3797.8 24601.8 3589 1 90 45614 1091094

